LAMMPS (21 Nov 2023)
OMP_NUM_THREADS environment is not set. Defaulting to 1 thread. (src/comm.cpp:98)
  using 1 OpenMP thread(s) per MPI task
Loaded 1 plugins from C:\Users\EO005063\AppData\Local\LAMMPS 64-bit 21Nov2023\plugins
#system definition

units metal
dimension 3
boundary p p p
atom_style atomic

#initialization

region a block 0 20 0 20 0 20
lattice fcc 3.614
Lattice spacing in x,y,z = 3.614 3.614 3.614
create_box 1 a
Created orthogonal box = (0 0 0) to (20 20 20)
  1 by 1 by 1 MPI processor grid
create_atoms 1 region a
Created 864 atoms
  using lattice units in orthogonal box = (0 0 0) to (20 20 20)
  create_atoms CPU = 0.002 seconds
mass 1 63.5
write_data data.lmp
System init for write_data ...
WARNING: Communication cutoff is 0.0. No ghost atoms will be generated. Atoms may get lost. (src/comm_brick.cpp:210)

#Force-Field Interaction

pair_style eam
pair_coeff * * Cu_u3.eam
Reading eam potential file Cu_u3.eam with DATE: 2007-06-11

#Minimiztion
thermo 10
min_style cg
minimize 1e-6 1e-6 10000 10000
Neighbor list info ...
  update: every = 1 steps, delay = 0 steps, check = yes
  max neighbors/atom: 2000, page size: 100000
  master list distance cutoff = 6.95
  ghost atom cutoff = 6.95
  binsize = 3.475, bins = 6 6 6
  1 neighbor lists, perpetual/occasional/extra = 1 0 0
  (1) pair eam, perpetual
      attributes: half, newton on
      pair build: half/bin/atomonly/newton
      stencil: half/bin/3d
      bin: standard
Per MPI rank memory allocation (min/avg/max) = 4.561 | 4.561 | 4.561 Mbytes
   Step          Temp          E_pair         E_mol          TotEng         Press     
         0   0              189468.52      0              189468.52      23510867     
        10   0             -1542.5077      0             -1542.5077      1145907.2    
        20   0             -2295.8161      0             -2295.8161      1064801.2    
        30   0             -2791.1948      0             -2791.1948      635751.08    
        40   0             -2824.317       0             -2824.317       626284.99    
        50   0             -2833.6444      0             -2833.6444      621091.69    
Loop time of 0.385079 on 1 procs for 50 steps with 864 atoms

101.4% CPU use with 1 MPI tasks x 1 OpenMP threads

Minimization stats:
  Stopping criterion = energy tolerance
  Energy initial, next-to-last, final = 
      189468.522997333  -2833.64174241434  -2833.64436688674
  Force two-norm initial, final = 489531.2 103.73638
  Force max component initial, final = 75535.382 20.222576
  Final line search alpha, max atom move = 0.00011817588 0.0023898208
  Iterations, force evaluations = 50 213

MPI task timing breakdown:
Section |  min time  |  avg time  |  max time  |%varavg| %total
---------------------------------------------------------------
Pair    | 0.37658    | 0.37658    | 0.37658    |   0.0 | 97.79
Neigh   | 0          | 0          | 0          |   0.0 |  0.00
Comm    | 0.003056   | 0.003056   | 0.003056   |   0.0 |  0.79
Output  | 0.001678   | 0.001678   | 0.001678   |   0.0 |  0.44
Modify  | 0          | 0          | 0          |   0.0 |  0.00
Other   |            | 0.003766   |            |       |  0.98

Nlocal:            864 ave         864 max         864 min
Histogram: 1 0 0 0 0 0 0 0 0 0
Nghost:           3136 ave        3136 max        3136 min
Histogram: 1 0 0 0 0 0 0 0 0 0
Neighs:          72012 ave       72012 max       72012 min
Histogram: 1 0 0 0 0 0 0 0 0 0

Total # of neighbors = 72012
Ave neighs/atom = 83.347222
Neighbor list builds = 0
Dangerous builds = 0
write_data min.lmp
System init for write_data ...

#Equilibration
thermo 1
timestep 0.001
velocity all create 300 456784
fix 1 all nvt temp 300 300 100


Total wall time: 0:00:00
