LAMMPS data file via write_data, version 21 Nov 2023, timestep = 50, units = metal

864 atoms
1 atom types

0 20 xlo xhi
0 20 ylo yhi
0 20 zlo zhi

Masses

1 63.55

Atoms # atomic

1 1 0.1721894110445211 0.17218941104452246 0.1721894110445202 0 0 0
2 1 2.027746290231154 2.0277462902311534 0.5406699203596496 0 0 0
3 1 2.0277462902311534 0.5406699203596498 2.0277462902311534 0 0 0
4 1 0.5406699203596496 2.0277462902311534 2.0277462902311534 0 0 0
5 1 3.717395739724794 0.17478649829294868 0.174786498292949 0 0 0
8 1 3.6756323312629524 1.9806145713347378 1.9806145713347378 0 0 0
25 1 0.17478649829294376 3.717395739724791 0.17478649829294302 0 0 0
27 1 1.9806145713347378 3.6756323312629524 1.9806145713347378 0 0 0
29 1 3.695536489098723 3.6955364890987226 0.607488128003094 0 0 0
145 1 0.17478649829294252 0.17478649829294193 3.7173957397247914 0 0 0
146 1 1.980614571334738 1.980614571334738 3.6756323312629524 0 0 0
149 1 3.6955364890987226 0.6074881280030944 3.695536489098723 0 0 0
169 1 0.6074881280030942 3.6955364890987226 3.695536489098723 0 0 0
173 1 3.6534771638764596 3.653477163876459 3.653477163876459 0 0 0
6 1 5.434185500596549 2.0261904311022394 0.5684038560200972 0 0 0
7 1 5.434185500596549 0.5684038560200972 2.02619043110224 0 0 0
9 1 7.294435063849001 0.1748146158202788 0.1748146158202779 0 0 0
12 1 7.229715475072963 1.9736624952898645 1.9736624952898645 0 0 0
31 1 5.429932047531459 3.665223553417283 2.043969549997779 0 0 0
33 1 7.229218615079886 3.6933157100297316 0.5935543733504108 0 0 0
150 1 5.429932047531459 2.043969549997779 3.665223553417283 0 0 0
153 1 7.229218615079886 0.5935543733504111 3.693315710029732 0 0 0
177 1 7.228568052970743 3.6536499270617484 3.6536499270617484 0 0 0
10 1 9.03501095259536 2.026504865861708 0.5640020371626862 0 0 0
11 1 9.03501095259536 0.5640020371626866 2.026504865861708 0 0 0
13 1 10.819808642996612 0.17482571092908344 0.17482571092908272 0 0 0
16 1 10.842107711388977 1.9732561487511524 1.9732561487511524 0 0 0
35 1 9.035038180993393 3.6650141369511933 2.0387123811426218 0 0 0
37 1 10.842108948109713 3.693451486546134 0.5927010803773146 0 0 0
154 1 9.035038180993393 2.038712381142622 3.6650141369511933 0 0 0
157 1 10.842108948109713 0.5927010803773146 3.6934514865461345 0 0 0
181 1 10.841936367457592 3.6535817727356625 3.6535817727356625 0 0 0
14 1 12.648278323831681 2.0268980085262873 0.5644757804865765 0 0 0
15 1 12.648278323831681 0.5644757804865768 2.026898008526287 0 0 0
17 1 14.397010259857707 0.17479807068379705 0.17479807068379777 0 0 0
20 1 14.442563033692092 1.9776671230807803 1.97766712308078 0 0 0
39 1 12.64747080312172 3.665085710350211 2.0397432392840233 0 0 0
41 1 14.436562302824019 3.693684512667454 0.6004489384283538 0 0 0
158 1 12.64747080312172 2.0397432392840233 3.665085710350211 0 0 0
161 1 14.436562302824019 0.6004489384283538 3.693684512667454 0 0 0
185 1 14.45262366698571 3.6538442860706724 3.6538442860706724 0 0 0
18 1 16.188359739575425 2.0246389633886253 0.5777055319635265 0 0 0
19 1 16.188359739575425 0.577705531963526 2.0246389633886257 0 0 0
21 1 17.941206414930612 0.1728363287048727 0.17283632870487248 0 0 0
22 1 19.70416367129516 1.935793585069388 0.1728363287048305 0 0 0
23 1 19.704163671295152 0.17283632870483864 1.9357935850693884 0 0 0
24 1 17.979168209154142 1.8978317908458595 1.8978317908458593 0 0 0
43 1 16.213947896183544 3.663052103816448 2.043077630131209 0 0 0
45 1 17.852361036611374 3.688640260424572 0.577705531963527 0 0 0
47 1 19.299294468036475 3.688640260424575 2.0246389633886266 0 0 0
162 1 16.213947896183544 2.043077630131209 3.663052103816448 0 0 0
165 1 17.852361036611377 0.577705531963527 3.6886402604245725 0 0 0
166 1 19.299294468036475 2.0246389633886275 3.6886402604245747 0 0 0
189 1 17.833922369868795 3.6630521038164483 3.6630521038164487 0 0 0
26 1 2.026190431102239 5.434185500596549 0.5684038560200971 0 0 0
28 1 0.5684038560200971 5.434185500596549 2.02619043110224 0 0 0
32 1 3.665223553417283 5.429932047531459 2.043969549997779 0 0 0
49 1 0.17481461582028401 7.294435063849001 0.17481461582028282 0 0 0
51 1 1.9736624952898647 7.229715475072963 1.9736624952898645 0 0 0
53 1 3.6933157100297316 7.229218615079886 0.593554373350411 0 0 0
170 1 2.043969549997779 5.429932047531458 3.665223553417283 0 0 0
193 1 0.5935543733504108 7.229218615079886 3.693315710029732 0 0 0
197 1 3.6536499270617484 7.228568052970743 3.6536499270617484 0 0 0
30 1 5.440936338469239 5.440936338469239 0.5924363471576705 0 0 0
36 1 7.229484988554141 5.429725999544702 2.041939398070319 0 0 0
55 1 5.429725999544702 7.229484988554141 2.041939398070319 0 0 0
57 1 7.229643639535989 7.229643639535989 0.5766764793642699 0 0 0
174 1 5.423906608715512 5.423906608715512 3.654122180202716 0 0 0
201 1 7.228500074299465 7.228500074299465 3.6537855634036887 0 0 0
34 1 9.034976393515969 5.441024137551863 0.5837749623227794 0 0 0
40 1 10.841937310748992 5.429780814505197 2.0409073905857875 0 0 0
59 1 9.035073003147458 7.229515382445033 2.036855672708863 0 0 0
61 1 10.842006413894449 7.229640386193514 0.5756757182731632 0 0 0
178 1 9.03504186389417 5.424219674683044 3.653858856862642 0 0 0
205 1 10.841941589534388 7.228499479423364 3.6536770366862017 0 0 0
38 1 12.64743527189381 5.440986747187555 0.5847210511926597 0 0 0
44 1 14.447409879736945 5.42959012026305 2.0460278643691368 0 0 0
63 1 12.647499921859694 7.229500078140303 2.0379127765071767 0 0 0
65 1 14.436013252812446 7.229564728106194 0.5847210511926603 0 0 0
182 1 12.648610434352534 5.424141839097891 3.6539588920758868 0 0 0
209 1 14.452858160902103 7.228389565647461 3.6539588920758863 0 0 0
42 1 16.183315487332543 5.440437697175974 0.6004489384283527 0 0 0
46 1 19.70220192931622 5.479989740142292 0.17479807068378928 0 0 0
48 1 17.899332876919214 5.4344369663079055 1.9776671230807819 0 0 0
67 1 16.21191428964979 7.2295291968782776 2.0397432392840242 0 0 0
69 1 17.850101991473718 7.228721676168318 0.5644757804865755 0 0 0
71 1 19.312524219513424 7.228721676168318 2.026898008526286 0 0 0
186 1 16.223155713929323 5.424376333014289 3.653844286070673 0 0 0
190 1 19.27655106157164 5.440437697175976 3.693684512667455 0 0 0
213 1 17.837256760715984 7.229529196878276 3.665085710350211 0 0 0
50 1 2.026504865861708 9.03501095259536 0.564002037162686 0 0 0
52 1 0.5640020371626866 9.03501095259536 2.026504865861708 0 0 0
56 1 3.6650141369511933 9.035038180993393 2.0387123811426218 0 0 0
73 1 0.17482571092906868 10.819808642996612 0.17482571092906843 0 0 0
75 1 1.9732561487511524 10.842107711388977 1.9732561487511524 0 0 0
77 1 3.693451486546134 10.842108948109713 0.592701080377314 0 0 0
194 1 2.0387123811426218 9.035038180993391 3.6650141369511937 0 0 0
217 1 0.5927010803773145 10.842108948109713 3.693451486546134 0 0 0
221 1 3.6535817727356625 10.841936367457592 3.6535817727356625 0 0 0
54 1 5.441024137551863 9.034976393515969 0.5837749623227794 0 0 0
60 1 7.229515382445033 9.035073003147458 2.0368556727088634 0 0 0
79 1 5.429780814505197 10.841937310748992 2.040907390585787 0 0 0
81 1 7.229640386193514 10.842006413894449 0.5756757182731632 0 0 0
198 1 5.424219674683044 9.03504186389417 3.653858856862642 0 0 0
225 1 7.228499479423364 10.841941589534388 3.6536770366862017 0 0 0
58 1 9.03499522038548 9.03499522038548 0.5746662093269722 0 0 0
64 1 10.841925543785484 9.035074456214513 2.0357981067255406 0 0 0
83 1 9.035074456214513 10.841925543785484 2.0357981067255406 0 0 0
85 1 10.842004779614514 10.842004779614514 0.5746662093269733 0 0 0
202 1 9.03506111851682 9.03506111851682 3.65356652866498 0 0 0
229 1 10.841938881483177 10.841938881483177 3.653566528664979 0 0 0
62 1 12.647359613806481 9.03499358610555 0.5756757182731623 0 0 0
68 1 14.447219185494806 9.035062689251006 2.0409073905857875 0 0 0
87 1 12.647484617554966 10.841926996852541 2.0368556727088625 0 0 0
89 1 14.435975862448128 10.842023606484032 0.5837749623227807 0 0 0
206 1 12.648500520576642 9.035058410465611 3.6536770366862013 0 0 0
233 1 14.452780325316954 10.841958136105829 3.653858856862642 0 0 0
66 1 16.183548513453864 9.034891051890284 0.5927010803773145 0 0 0
70 1 19.702174289070918 9.057191357003388 0.17482571092908522 0 0 0
72 1 17.90374385124884 9.034892288611026 1.9732561487511524 0 0 0
91 1 16.211985863048806 10.841961819006606 2.0387123811426218 0 0 0
93 1 17.850495134138292 10.841989047404638 0.5640020371626855 0 0 0
95 1 19.312997962837315 10.84198904740464 2.026504865861704 0 0 0
210 1 16.223418227264343 9.035063632542407 3.6535817727356625 0 0 0
214 1 19.284298919622685 9.034891051890286 3.6934514865461345 0 0 0
237 1 17.838287618857386 10.841961819006608 3.6650141369511933 0 0 0
74 1 2.026898008526287 12.648278323831681 0.5644757804865768 0 0 0
76 1 0.5644757804865768 12.648278323831681 2.026898008526287 0 0 0
80 1 3.665085710350211 12.64747080312172 2.0397432392840233 0 0 0
97 1 0.17479807068379224 14.397010259857709 0.17479807068379136 0 0 0
99 1 1.9776671230807803 14.442563033692092 1.97766712308078 0 0 0
101 1 3.693684512667454 14.436562302824019 0.6004489384283539 0 0 0
218 1 2.0397432392840233 12.64747080312172 3.665085710350211 0 0 0
241 1 0.6004489384283537 14.436562302824019 3.6936845126674536 0 0 0
245 1 3.6538442860706724 14.45262366698571 3.6538442860706724 0 0 0
78 1 5.440986747187555 12.64743527189381 0.5847210511926597 0 0 0
84 1 7.229500078140303 12.647499921859694 2.0379127765071767 0 0 0
103 1 5.42959012026305 14.447409879736945 2.046027864369137 0 0 0
105 1 7.229564728106194 14.436013252812446 0.5847210511926603 0 0 0
222 1 5.424141839097891 12.648610434352534 3.6539588920758868 0 0 0
249 1 7.228389565647461 14.452858160902103 3.6539588920758863 0 0 0
82 1 9.03499358610555 12.647359613806481 0.5756757182731623 0 0 0
88 1 10.841926996852541 12.647484617554966 2.0368556727088625 0 0 0
107 1 9.035062689251006 14.447219185494806 2.040907390585787 0 0 0
109 1 10.842023606484032 14.435975862448128 0.5837749623227806 0 0 0
226 1 9.035058410465611 12.648500520576642 3.6536770366862013 0 0 0
253 1 10.841958136105829 14.452780325316954 3.653858856862642 0 0 0
86 1 12.647356360464013 12.647356360464013 0.576676479364268 0 0 0
92 1 14.447274000455291 12.647515011445863 2.041939398070319 0 0 0
111 1 12.647515011445863 14.447274000455291 2.041939398070319 0 0 0
113 1 14.436063661530762 14.436063661530762 0.592436347157668 0 0 0
230 1 12.648499925700529 12.648499925700529 3.6537855634036895 0 0 0
257 1 14.45309339128449 14.45309339128449 3.654122180202715 0 0 0
90 1 16.183684289970266 12.64778138492011 0.5935543733504113 0 0 0
94 1 19.702185384179725 12.582564936150998 0.17481461582028024 0 0 0
96 1 17.903337504710127 12.647284524927041 1.973662495289866 0 0 0
115 1 16.21177644658272 14.447067952468537 2.043969549997779 0 0 0
117 1 17.85080956889777 14.442814499403447 0.5684038560200948 0 0 0
119 1 19.30859614397991 14.442814499403449 2.0261904311022407 0 0 0
234 1 16.22335007293825 12.648431947029255 3.6536499270617493 0 0 0
238 1 19.283445626649588 12.647781384920112 3.693315710029732 0 0 0
261 1 17.833030450002227 14.447067952468537 3.6652235534172832 0 0 0
98 1 2.024638963388627 16.188359739575425 0.5777055319635271 0 0 0
100 1 0.5777055319635274 16.188359739575425 2.0246389633886275 0 0 0
104 1 3.663052103816448 16.213947896183544 2.043077630131209 0 0 0
121 1 0.17283632870487722 17.941206414930623 0.1728363287048759 0 0 0
122 1 1.9357935850693841 19.704163671295156 0.17283632870483673 0 0 0
123 1 1.8978317908458597 17.979168209154142 1.8978317908458593 0 0 0
124 1 0.1728363287048388 19.704163671295152 1.9357935850693873 0 0 0
125 1 3.6886402604245725 17.852361036611377 0.5777055319635269 0 0 0
128 1 3.6886402604245747 19.299294468036475 2.0246389633886275 0 0 0
242 1 2.043077630131209 16.213947896183544 3.663052103816448 0 0 0
265 1 0.5777055319635276 17.852361036611374 3.6886402604245725 0 0 0
266 1 2.0246389633886275 19.299294468036475 3.688640260424575 0 0 0
269 1 3.6630521038164487 17.833922369868795 3.6630521038164487 0 0 0
102 1 5.440437697175974 16.183315487332543 0.6004489384283532 0 0 0
108 1 7.2295291968782776 16.21191428964979 2.0397432392840242 0 0 0
126 1 5.479989740142293 19.702201929316217 0.17479807068378875 0 0 0
127 1 5.4344369663079055 17.899332876919217 1.9776671230807819 0 0 0
129 1 7.228721676168318 17.850101991473718 0.5644757804865755 0 0 0
132 1 7.228721676168317 19.312524219513424 2.026898008526286 0 0 0
246 1 5.424376333014289 16.223155713929323 3.6538442860706724 0 0 0
270 1 5.440437697175976 19.276551061571645 3.693684512667456 0 0 0
273 1 7.229529196878276 17.837256760715984 3.665085710350211 0 0 0
106 1 9.034891051890284 16.183548513453864 0.5927010803773145 0 0 0
112 1 10.841961819006606 16.211985863048806 2.0387123811426218 0 0 0
130 1 9.057191357003388 19.702174289070918 0.17482571092908514 0 0 0
131 1 9.034892288611026 17.90374385124884 1.9732561487511524 0 0 0
133 1 10.841989047404638 17.850495134138292 0.5640020371626846 0 0 0
136 1 10.84198904740464 19.312997962837315 2.026504865861705 0 0 0
250 1 9.035063632542407 16.223418227264343 3.6535817727356625 0 0 0
274 1 9.034891051890286 19.284298919622685 3.6934514865461345 0 0 0
277 1 10.841961819006608 17.838287618857386 3.6650141369511933 0 0 0
110 1 12.64778138492011 16.183684289970266 0.5935543733504113 0 0 0
116 1 14.447067952468537 16.21177644658272 2.043969549997779 0 0 0
134 1 12.582564936150996 19.702185384179725 0.17481461582027982 0 0 0
135 1 12.647284524927041 17.903337504710127 1.973662495289866 0 0 0
137 1 14.442814499403447 17.85080956889777 0.5684038560200951 0 0 0
140 1 14.442814499403449 19.30859614397991 2.026190431102241 0 0 0
254 1 12.648431947029255 16.22335007293825 3.6536499270617493 0 0 0
278 1 12.647781384920112 19.283445626649588 3.693315710029732 0 0 0
281 1 14.447067952468537 17.833030450002227 3.6652235534172832 0 0 0
114 1 16.181463510901274 16.181463510901274 0.6074881280030924 0 0 0
118 1 19.70221350170705 16.15960426027521 0.17478649829294618 0 0 0
120 1 17.89638542866526 16.201367668737053 1.9806145713347385 0 0 0
138 1 16.159604260275206 19.702213501707046 0.17478649829294493 0 0 0
139 1 16.201367668737053 17.89638542866526 1.9806145713347385 0 0 0
141 1 17.84925370976885 17.849253709768846 0.5406699203596448 0 0 0
142 1 19.70481058895549 19.704810588955482 0.17218941104451368 0 0 0
143 1 19.336330079640348 17.849253709768846 2.027746290231153 0 0 0
144 1 17.849253709768846 19.336330079640348 2.027746290231152 0 0 0
258 1 16.22352283612354 16.22352283612354 3.6534771638764605 0 0 0
262 1 19.26951187199691 16.181463510901274 3.6955364890987226 0 0 0
282 1 16.181463510901274 19.26951187199691 3.695536489098723 0 0 0
285 1 17.89638542866526 17.89638542866526 3.6756323312629555 0 0 0
286 1 19.702213501707053 19.70221350170705 3.717395739724792 0 0 0
147 1 2.026190431102239 0.5684038560200974 5.434185500596549 0 0 0
148 1 0.5684038560200971 2.02619043110224 5.434185500596549 0 0 0
152 1 3.665223553417283 2.043969549997779 5.429932047531459 0 0 0
171 1 2.043969549997779 3.665223553417283 5.429932047531459 0 0 0
289 1 0.17481461582028243 0.17481461582028193 7.294435063849001 0 0 0
290 1 1.9736624952898647 1.9736624952898647 7.229715475072963 0 0 0
293 1 3.6933157100297316 0.5935543733504108 7.229218615079886 0 0 0
313 1 0.5935543733504108 3.693315710029732 7.229218615079886 0 0 0
317 1 3.6536499270617484 3.6536499270617484 7.228568052970743 0 0 0
151 1 5.440936338469239 0.5924363471576707 5.440936338469239 0 0 0
156 1 7.229484988554141 2.041939398070319 5.429725999544702 0 0 0
175 1 5.423906608715512 3.654122180202716 5.423906608715512 0 0 0
294 1 5.429725999544702 2.041939398070319 7.229484988554141 0 0 0
297 1 7.229643639535989 0.5766764793642699 7.229643639535989 0 0 0
321 1 7.228500074299465 3.6537855634036887 7.228500074299465 0 0 0
155 1 9.034976393515969 0.5837749623227794 5.441024137551863 0 0 0
160 1 10.841937310748992 2.0409073905857875 5.429780814505197 0 0 0
179 1 9.03504186389417 3.653858856862642 5.424219674683044 0 0 0
298 1 9.035073003147458 2.0368556727088634 7.229515382445033 0 0 0
301 1 10.842006413894449 0.5756757182731632 7.229640386193514 0 0 0
325 1 10.841941589534388 3.6536770366862017 7.228499479423364 0 0 0
159 1 12.64743527189381 0.5847210511926596 5.440986747187555 0 0 0
164 1 14.447409879736945 2.046027864369137 5.42959012026305 0 0 0
183 1 12.648610434352534 3.6539588920758868 5.424141839097891 0 0 0
302 1 12.647499921859694 2.0379127765071767 7.229500078140303 0 0 0
305 1 14.436013252812446 0.5847210511926603 7.229564728106194 0 0 0
329 1 14.452858160902103 3.6539588920758863 7.228389565647461 0 0 0
163 1 16.183315487332543 0.6004489384283529 5.440437697175975 0 0 0
167 1 19.702201929316217 0.17479807068378767 5.479989740142292 0 0 0
168 1 17.899332876919214 1.9776671230807819 5.4344369663079055 0 0 0
187 1 16.223155713929323 3.653844286070673 5.424376333014289 0 0 0
191 1 19.27655106157164 3.693684512667455 5.440437697175977 0 0 0
306 1 16.21191428964979 2.0397432392840247 7.2295291968782776 0 0 0
309 1 17.850101991473718 0.5644757804865754 7.228721676168318 0 0 0
310 1 19.312524219513424 2.026898008526286 7.228721676168318 0 0 0
333 1 17.837256760715984 3.665085710350211 7.229529196878276 0 0 0
172 1 0.5924363471576704 5.440936338469239 5.440936338469239 0 0 0
176 1 3.654122180202716 5.423906608715512 5.423906608715512 0 0 0
195 1 2.041939398070319 7.229484988554141 5.429725999544702 0 0 0
314 1 2.041939398070319 5.429725999544702 7.229484988554141 0 0 0
337 1 0.5766764793642697 7.229643639535989 7.229643639535989 0 0 0
341 1 3.6537855634036887 7.228500074299465 7.228500074299465 0 0 0
180 1 7.228221531276353 5.423783639890306 5.423783639890306 0 0 0
199 1 5.423783639890306 7.228221531276353 5.423783639890306 0 0 0
318 1 5.423783639890306 5.423783639890306 7.228221531276352 0 0 0
345 1 7.22838567703188 7.22838567703188 7.22838567703188 0 0 0
184 1 10.841997437005165 5.423842876452434 5.423842876452434 0 0 0
203 1 9.035025500234521 7.2283002892437 5.423918663544389 0 0 0
322 1 9.035025500234521 5.423918663544388 7.2283002892437 0 0 0
349 1 10.841957701701295 7.228392850132002 7.228392850132002 0 0 0
188 1 14.453308045901721 5.423691954098278 5.423691954098278 0 0 0
207 1 12.648708976391935 7.22829102360806 5.42384348610257 0 0 0
326 1 12.648708976391935 5.42384348610257 7.22829102360806 0 0 0
353 1 14.453156513897426 7.228291023608059 7.228291023608059 0 0 0
192 1 17.830972135630862 5.429590120263049 5.429590120263049 0 0 0
211 1 16.223041107924114 7.228389565647461 5.424141839097891 0 0 0
215 1 19.29227894880734 7.229564728106193 5.440986747187555 0 0 0
330 1 16.223041107924114 5.424141839097891 7.228389565647461 0 0 0
334 1 19.29227894880734 5.440986747187555 7.229564728106193 0 0 0
357 1 17.839087223492818 7.229500078140303 7.229500078140303 0 0 0
196 1 0.5837749623227794 9.034976393515969 5.441024137551863 0 0 0
200 1 3.653858856862642 9.03504186389417 5.424219674683044 0 0 0
219 1 2.040907390585787 10.841937310748992 5.429780814505197 0 0 0
338 1 2.0368556727088634 9.035073003147458 7.229515382445033 0 0 0
361 1 0.5756757182731636 10.842006413894449 7.229640386193515 0 0 0
365 1 3.6536770366862017 10.841941589534388 7.228499479423364 0 0 0
204 1 7.2283002892437 9.035025500234521 5.423918663544389 0 0 0
223 1 5.423842876452434 10.841997437005165 5.423842876452434 0 0 0
342 1 5.423918663544388 9.035025500234521 7.2283002892437 0 0 0
369 1 7.228392850132002 10.841957701701295 7.228392850132002 0 0 0
208 1 10.841972044642848 9.035027955357151 5.423993893392699 0 0 0
227 1 9.035027955357151 10.841972044642848 5.423993893392699 0 0 0
346 1 9.035043821092776 9.035043821092776 7.228400719409743 0 0 0
373 1 10.841956178907223 10.841956178907223 7.228400719409744 0 0 0
212 1 14.453157123547571 9.035002562994833 5.423842876452432 0 0 0
231 1 12.648699710756297 10.841974499765476 5.423918663544388 0 0 0
350 1 12.648607149867999 9.035042298298704 7.228392850132001 0 0 0
377 1 14.45308133645561 10.841974499765476 7.2283002892437 0 0 0
216 1 17.836092609414216 9.035062689251006 5.429780814505197 0 0 0
235 1 16.223141143137365 10.84195813610583 5.424219674683043 0 0 0
239 1 19.29322503767722 10.84202360648403 5.441024137551864 0 0 0
354 1 16.223322963313795 9.035058410465611 7.228499479423364 0 0 0
358 1 19.30132428172683 9.03499358610555 7.2296403861935135 0 0 0
381 1 17.84014432729113 10.841926996852541 7.229515382445033 0 0 0
220 1 0.5847210511926596 12.64743527189381 5.440986747187555 0 0 0
224 1 3.6539588920758868 12.648610434352534 5.424141839097891 0 0 0
243 1 2.046027864369137 14.447409879736945 5.42959012026305 0 0 0
362 1 2.0379127765071767 12.647499921859694 7.229500078140303 0 0 0
385 1 0.5847210511926603 14.436013252812446 7.229564728106194 0 0 0
389 1 3.6539588920758863 14.452858160902103 7.228389565647461 0 0 0
228 1 7.22829102360806 12.648708976391935 5.42384348610257 0 0 0
247 1 5.423691954098278 14.453308045901721 5.423691954098278 0 0 0
366 1 5.42384348610257 12.648708976391935 7.22829102360806 0 0 0
393 1 7.228291023608059 14.453156513897426 7.228291023608059 0 0 0
232 1 10.841974499765476 12.648699710756297 5.423918663544388 0 0 0
251 1 9.035002562994833 14.453157123547571 5.423842876452432 0 0 0
370 1 9.035042298298704 12.648607149867999 7.228392850132001 0 0 0
397 1 10.841974499765476 14.45308133645561 7.2283002892437 0 0 0
236 1 14.453216360109698 12.648778468723648 5.423783639890306 0 0 0
255 1 12.648778468723648 14.453216360109698 5.423783639890306 0 0 0
374 1 12.648614322968113 12.648614322968113 7.22838567703188 0 0 0
401 1 14.453216360109698 14.453216360109698 7.228221531276354 0 0 0
240 1 17.835060601929683 12.647515011445863 5.429725999544702 0 0 0
259 1 16.222877819797276 14.45309339128449 5.423906608715513 0 0 0
263 1 19.284563652842337 14.436063661530763 5.440936338469236 0 0 0
378 1 16.2232144365963 12.648499925700529 7.228500074299463 0 0 0
382 1 19.300323520635725 12.647356360464013 7.229643639535988 0 0 0
405 1 17.835060601929683 14.447274000455291 7.229484988554141 0 0 0
244 1 0.6004489384283528 16.183315487332543 5.440437697175975 0 0 0
248 1 3.653844286070673 16.223155713929323 5.424376333014289 0 0 0
267 1 1.977667123080782 17.899332876919214 5.4344369663079055 0 0 0
268 1 0.17479807068378725 19.702201929316217 5.479989740142292 0 0 0
272 1 3.693684512667455 19.276551061571645 5.440437697175977 0 0 0
386 1 2.0397432392840242 16.21191428964979 7.2295291968782776 0 0 0
409 1 0.5644757804865759 17.850101991473718 7.228721676168317 0 0 0
410 1 2.026898008526286 19.312524219513424 7.228721676168318 0 0 0
413 1 3.665085710350211 17.837256760715984 7.229529196878276 0 0 0
252 1 7.228389565647461 16.223041107924114 5.424141839097891 0 0 0
271 1 5.429590120263049 17.830972135630862 5.429590120263049 0 0 0
276 1 7.229564728106193 19.29227894880734 5.440986747187555 0 0 0
390 1 5.424141839097891 16.223041107924114 7.228389565647461 0 0 0
414 1 5.440986747187555 19.29227894880734 7.229564728106193 0 0 0
417 1 7.229500078140303 17.839087223492818 7.229500078140303 0 0 0
256 1 10.84195813610583 16.223141143137365 5.424219674683043 0 0 0
275 1 9.035062689251006 17.836092609414216 5.429780814505197 0 0 0
280 1 10.84202360648403 19.29322503767722 5.441024137551864 0 0 0
394 1 9.035058410465611 16.223322963313795 7.228499479423364 0 0 0
418 1 9.03499358610555 19.30132428172683 7.2296403861935135 0 0 0
421 1 10.841926996852541 17.84014432729113 7.229515382445033 0 0 0
260 1 14.45309339128449 16.222877819797276 5.423906608715513 0 0 0
279 1 12.647515011445863 17.835060601929683 5.429725999544702 0 0 0
284 1 14.436063661530763 19.284563652842337 5.440936338469237 0 0 0
398 1 12.648499925700529 16.2232144365963 7.228500074299463 0 0 0
422 1 12.647356360464013 19.300323520635725 7.229643639535988 0 0 0
425 1 14.447274000455291 17.835060601929683 7.229484988554141 0 0 0
264 1 17.833030450002223 16.211776446582718 5.429932047531458 0 0 0
283 1 16.211776446582718 17.833030450002223 5.429932047531458 0 0 0
287 1 19.30859614397991 17.850809568897766 5.434185500596549 0 0 0
288 1 17.850809568897766 19.30859614397991 5.434185500596549 0 0 0
402 1 16.22335007293825 16.22335007293825 7.228568052970743 0 0 0
406 1 19.283445626649588 16.183684289970266 7.2292186150798825 0 0 0
426 1 16.183684289970266 19.283445626649588 7.2292186150798825 0 0 0
429 1 17.903337504710127 17.903337504710127 7.229715475072963 0 0 0
430 1 19.702185384179725 19.702185384179725 7.2944350638490025 0 0 0
291 1 2.026504865861708 0.5640020371626862 9.03501095259536 0 0 0
292 1 0.5640020371626866 2.026504865861708 9.03501095259536 0 0 0
296 1 3.6650141369511933 2.0387123811426218 9.035038180993393 0 0 0
315 1 2.0387123811426218 3.6650141369511937 9.035038180993393 0 0 0
433 1 0.17482571092907967 0.17482571092907873 10.819808642996612 0 0 0
434 1 1.9732561487511526 1.9732561487511524 10.842107711388977 0 0 0
437 1 3.693451486546134 0.5927010803773145 10.842108948109713 0 0 0
457 1 0.5927010803773144 3.6934514865461345 10.842108948109713 0 0 0
461 1 3.6535817727356625 3.6535817727356625 10.841936367457592 0 0 0
295 1 5.441024137551863 0.5837749623227793 9.034976393515969 0 0 0
300 1 7.229515382445033 2.036855672708863 9.035073003147458 0 0 0
319 1 5.424219674683044 3.653858856862642 9.03504186389417 0 0 0
438 1 5.429780814505197 2.040907390585787 10.841937310748992 0 0 0
441 1 7.229640386193514 0.5756757182731632 10.842006413894447 0 0 0
465 1 7.228499479423364 3.6536770366862017 10.841941589534388 0 0 0
299 1 9.03499522038548 0.5746662093269722 9.03499522038548 0 0 0
304 1 10.841925543785482 2.0357981067255406 9.035074456214513 0 0 0
323 1 9.03506111851682 3.6535665286649803 9.03506111851682 0 0 0
442 1 9.035074456214513 2.0357981067255406 10.841925543785482 0 0 0
445 1 10.842004779614514 0.5746662093269732 10.842004779614516 0 0 0
469 1 10.841938881483177 3.653566528664979 10.841938881483177 0 0 0
303 1 12.647359613806481 0.5756757182731623 9.03499358610555 0 0 0
308 1 14.447219185494806 2.0409073905857875 9.035062689251006 0 0 0
327 1 12.648500520576642 3.6536770366862013 9.035058410465611 0 0 0
446 1 12.647484617554966 2.0368556727088625 10.841926996852541 0 0 0
449 1 14.435975862448128 0.5837749623227807 10.842023606484032 0 0 0
473 1 14.452780325316954 3.653858856862642 10.841958136105829 0 0 0
307 1 16.183548513453864 0.5927010803773145 9.034891051890284 0 0 0
311 1 19.702174289070918 0.1748257109290836 9.057191357003388 0 0 0
312 1 17.90374385124884 1.9732561487511524 9.034892288611026 0 0 0
331 1 16.223418227264343 3.6535817727356625 9.035063632542407 0 0 0
335 1 19.284298919622685 3.6934514865461345 9.034891051890286 0 0 0
450 1 16.211985863048806 2.0387123811426218 10.841961819006606 0 0 0
453 1 17.850495134138292 0.5640020371626848 10.841989047404638 0 0 0
454 1 19.312997962837315 2.026504865861704 10.84198904740464 0 0 0
477 1 17.838287618857386 3.6650141369511933 10.841961819006608 0 0 0
316 1 0.5837749623227794 5.441024137551863 9.034976393515969 0 0 0
320 1 3.653858856862642 5.424219674683044 9.03504186389417 0 0 0
339 1 2.036855672708863 7.229515382445033 9.035073003147458 0 0 0
458 1 2.040907390585787 5.429780814505197 10.841937310748992 0 0 0
481 1 0.5756757182731633 7.229640386193515 10.842006413894447 0 0 0
485 1 3.6536770366862017 7.228499479423364 10.841941589534388 0 0 0
324 1 7.2283002892437 5.423918663544389 9.035025500234521 0 0 0
343 1 5.423918663544389 7.2283002892437 9.035025500234521 0 0 0
462 1 5.423842876452434 5.423842876452434 10.841997437005165 0 0 0
489 1 7.228392850132002 7.228392850132002 10.841957701701295 0 0 0
328 1 10.841972044642848 5.423993893392699 9.035027955357151 0 0 0
347 1 9.035043821092776 7.228400719409743 9.035043821092776 0 0 0
466 1 9.035027955357151 5.423993893392699 10.841972044642848 0 0 0
493 1 10.841956178907223 7.228400719409744 10.841956178907223 0 0 0
332 1 14.453157123547571 5.423842876452432 9.035002562994833 0 0 0
351 1 12.648607149867999 7.228392850132001 9.035042298298704 0 0 0
470 1 12.648699710756297 5.423918663544388 10.841974499765476 0 0 0
497 1 14.45308133645561 7.2283002892437 10.841974499765476 0 0 0
336 1 17.836092609414216 5.429780814505197 9.035062689251006 0 0 0
355 1 16.223322963313795 7.228499479423364 9.035058410465611 0 0 0
359 1 19.30132428172683 7.2296403861935135 9.03499358610555 0 0 0
474 1 16.223141143137365 5.424219674683044 10.84195813610583 0 0 0
478 1 19.29322503767722 5.441024137551865 10.842023606484032 0 0 0
501 1 17.84014432729113 7.229515382445033 10.841926996852541 0 0 0
340 1 0.5746662093269719 9.03499522038548 9.03499522038548 0 0 0
344 1 3.6535665286649803 9.03506111851682 9.03506111851682 0 0 0
363 1 2.0357981067255406 10.841925543785482 9.035074456214513 0 0 0
482 1 2.0357981067255406 9.035074456214513 10.841925543785482 0 0 0
505 1 0.5746662093269731 10.842004779614516 10.842004779614514 0 0 0
509 1 3.653566528664979 10.841938881483177 10.841938881483177 0 0 0
348 1 7.228400719409743 9.035043821092776 9.035043821092776 0 0 0
367 1 5.423993893392699 10.841972044642848 9.035027955357151 0 0 0
486 1 5.423993893392699 9.035027955357151 10.841972044642848 0 0 0
513 1 7.228400719409744 10.841956178907223 10.841956178907223 0 0 0
352 1 10.84195466089883 9.035045339101169 9.035045339101169 0 0 0
371 1 9.035045339101169 10.84195466089883 9.035045339101169 0 0 0
490 1 9.035045339101169 9.035045339101169 10.84195466089883 0 0 0
517 1 10.84195466089883 10.84195466089883 10.84195466089883 0 0 0
356 1 14.4530061066073 9.035027955357151 9.035027955357151 0 0 0
375 1 12.648599280590261 10.841956178907223 9.035043821092776 0 0 0